file 30683817 1518724766                                        
version 2
run General-0-20180215-12:55:32-3256
attr configname General
attr datetime 20180215-12:55:32
attr experiment General
attr inifile omnetpp_Sim.ini
attr iterationvars ""
attr iterationvars2 $repetition=0
attr measurement ""
attr network SASim
attr processid 3256
attr repetition 0
attr replication #0
attr resultdir results
attr runnumber 0
attr seedset 0

vector 4  SASim.node[0].nic.phy  RadioState  ETV
vector 5  SASim.node[0].nic.phy  RadioChannel  ETV
vector 15  SASim.node[1].nic.phy  RadioState  ETV
vector 16  SASim.node[1].nic.phy  RadioChannel  ETV
vector 26  SASim.node[2].nic.phy  RadioState  ETV
vector 27  SASim.node[2].nic.phy  RadioChannel  ETV
vector 37  SASim.node[3].nic.phy  RadioState  ETV
vector 38  SASim.node[3].nic.phy  RadioChannel  ETV
vector 48  SASim.node[4].nic.phy  RadioState  ETV
vector 49  SASim.node[4].nic.phy  RadioChannel  ETV
vector 59  SASim.node[5].nic.phy  RadioState  ETV
vector 60  SASim.node[5].nic.phy  RadioChannel  ETV
vector 70  SASim.node[6].nic.phy  RadioState  ETV
vector 71  SASim.node[6].nic.phy  RadioChannel  ETV
vector 81  SASim.node[7].nic.phy  RadioState  ETV
vector 82  SASim.node[7].nic.phy  RadioChannel  ETV
vector 92  SASim.node[8].nic.phy  RadioState  ETV
vector 93  SASim.node[8].nic.phy  RadioChannel  ETV
vector 103  SASim.node[9].nic.phy  RadioState  ETV
vector 104  SASim.node[9].nic.phy  RadioChannel  ETV
vector 114  SASim.node[10].nic.phy  RadioState  ETV
vector 115  SASim.node[10].nic.phy  RadioChannel  ETV
vector 125  SASim.node[11].nic.phy  RadioState  ETV
vector 126  SASim.node[11].nic.phy  RadioChannel  ETV
vector 136  SASim.node[12].nic.phy  RadioState  ETV
vector 137  SASim.node[12].nic.phy  RadioChannel  ETV
vector 147  SASim.node[13].nic.phy  RadioState  ETV
vector 148  SASim.node[13].nic.phy  RadioChannel  ETV
vector 158  SASim.node[14].nic.phy  RadioState  ETV
vector 159  SASim.node[14].nic.phy  RadioChannel  ETV
vector 169  SASim.node[15].nic.phy  RadioState  ETV
vector 170  SASim.node[15].nic.phy  RadioChannel  ETV
vector 180  SASim.node[16].nic.phy  RadioState  ETV
vector 181  SASim.node[16].nic.phy  RadioChannel  ETV
vector 191  SASim.node[17].nic.phy  RadioState  ETV
vector 192  SASim.node[17].nic.phy  RadioChannel  ETV
vector 202  SASim.node[18].nic.phy  RadioState  ETV
vector 203  SASim.node[18].nic.phy  RadioChannel  ETV
vector 213  SASim.node[19].nic.phy  RadioState  ETV
vector 214  SASim.node[19].nic.phy  RadioChannel  ETV
vector 224  SASim.node[20].nic.phy  RadioState  ETV
vector 225  SASim.node[20].nic.phy  RadioChannel  ETV
vector 235  SASim.node[21].nic.phy  RadioState  ETV
vector 236  SASim.node[21].nic.phy  RadioChannel  ETV
vector 246  SASim.node[22].nic.phy  RadioState  ETV
vector 247  SASim.node[22].nic.phy  RadioChannel  ETV
vector 257  SASim.node[23].nic.phy  RadioState  ETV
vector 258  SASim.node[23].nic.phy  RadioChannel  ETV
vector 268  SASim.node[24].nic.phy  RadioState  ETV
vector 269  SASim.node[24].nic.phy  RadioChannel  ETV
vector 279  SASim.node[25].nic.phy  RadioState  ETV
vector 280  SASim.node[25].nic.phy  RadioChannel  ETV
vector 290  SASim.node[26].nic.phy  RadioState  ETV
vector 291  SASim.node[26].nic.phy  RadioChannel  ETV
vector 301  SASim.node[27].nic.phy  RadioState  ETV
vector 302  SASim.node[27].nic.phy  RadioChannel  ETV
vector 312  SASim.node[28].nic.phy  RadioState  ETV
vector 313  SASim.node[28].nic.phy  RadioChannel  ETV
vector 323  SASim.node[29].nic.phy  RadioState  ETV
vector 324  SASim.node[29].nic.phy  RadioChannel  ETV
vector 334  SASim.node[30].nic.phy  RadioState  ETV
vector 335  SASim.node[30].nic.phy  RadioChannel  ETV
vector 345  SASim.node[31].nic.phy  RadioState  ETV
vector 346  SASim.node[31].nic.phy  RadioChannel  ETV
vector 356  SASim.node[32].nic.phy  RadioState  ETV
vector 357  SASim.node[32].nic.phy  RadioChannel  ETV
vector 367  SASim.node[33].nic.phy  RadioState  ETV
vector 368  SASim.node[33].nic.phy  RadioChannel  ETV
vector 378  SASim.node[34].nic.phy  RadioState  ETV
vector 379  SASim.node[34].nic.phy  RadioChannel  ETV
vector 389  SASim.node[35].nic.phy  RadioState  ETV
vector 390  SASim.node[35].nic.phy  RadioChannel  ETV
vector 400  SASim.node[36].nic.phy  RadioState  ETV
vector 401  SASim.node[36].nic.phy  RadioChannel  ETV
vector 411  SASim.node[37].nic.phy  RadioState  ETV
vector 412  SASim.node[37].nic.phy  RadioChannel  ETV
vector 422  SASim.node[38].nic.phy  RadioState  ETV
vector 423  SASim.node[38].nic.phy  RadioChannel  ETV
vector 433  SASim.node[39].nic.phy  RadioState  ETV
vector 434  SASim.node[39].nic.phy  RadioChannel  ETV
vector 444  SASim.node[40].nic.phy  RadioState  ETV
vector 445  SASim.node[40].nic.phy  RadioChannel  ETV
vector 455  SASim.node[41].nic.phy  RadioState  ETV
vector 456  SASim.node[41].nic.phy  RadioChannel  ETV
vector 466  SASim.node[42].nic.phy  RadioState  ETV
vector 467  SASim.node[42].nic.phy  RadioChannel  ETV
vector 477  SASim.node[43].nic.phy  RadioState  ETV
vector 478  SASim.node[43].nic.phy  RadioChannel  ETV
vector 488  SASim.node[44].nic.phy  RadioState  ETV
vector 489  SASim.node[44].nic.phy  RadioChannel  ETV
vector 499  SASim.node[45].nic.phy  RadioState  ETV
vector 500  SASim.node[45].nic.phy  RadioChannel  ETV
vector 510  SASim.node[46].nic.phy  RadioState  ETV
vector 511  SASim.node[46].nic.phy  RadioChannel  ETV
vector 521  SASim.node[47].nic.phy  RadioState  ETV
vector 522  SASim.node[47].nic.phy  RadioChannel  ETV
vector 532  SASim.node[48].nic.phy  RadioState  ETV
vector 533  SASim.node[48].nic.phy  RadioChannel  ETV
vector 543  SASim.node[49].nic.phy  RadioState  ETV
vector 544  SASim.node[49].nic.phy  RadioChannel  ETV
vector 554  SASim.node[50].nic.phy  RadioState  ETV
vector 555  SASim.node[50].nic.phy  RadioChannel  ETV
vector 565  SASim.node[51].nic.phy  RadioState  ETV
vector 566  SASim.node[51].nic.phy  RadioChannel  ETV
vector 576  SASim.node[52].nic.phy  RadioState  ETV
vector 577  SASim.node[52].nic.phy  RadioChannel  ETV
vector 587  SASim.node[53].nic.phy  RadioState  ETV
vector 588  SASim.node[53].nic.phy  RadioChannel  ETV
vector 598  SASim.node[54].nic.phy  RadioState  ETV
vector 599  SASim.node[54].nic.phy  RadioChannel  ETV
vector 609  SASim.node[55].nic.phy  RadioState  ETV
vector 610  SASim.node[55].nic.phy  RadioChannel  ETV
vector 620  SASim.node[56].nic.phy  RadioState  ETV
vector 621  SASim.node[56].nic.phy  RadioChannel  ETV
vector 631  SASim.node[57].nic.phy  RadioState  ETV
vector 632  SASim.node[57].nic.phy  RadioChannel  ETV
vector 642  SASim.node[58].nic.phy  RadioState  ETV
vector 643  SASim.node[58].nic.phy  RadioChannel  ETV
vector 653  SASim.node[59].nic.phy  RadioState  ETV
vector 654  SASim.node[59].nic.phy  RadioChannel  ETV
vector 664  SASim.node[60].nic.phy  RadioState  ETV
vector 665  SASim.node[60].nic.phy  RadioChannel  ETV
vector 675  SASim.node[61].nic.phy  RadioState  ETV
vector 676  SASim.node[61].nic.phy  RadioChannel  ETV
vector 686  SASim.node[62].nic.phy  RadioState  ETV
vector 687  SASim.node[62].nic.phy  RadioChannel  ETV
vector 697  SASim.node[63].nic.phy  RadioState  ETV
vector 698  SASim.node[63].nic.phy  RadioChannel  ETV
vector 708  SASim.node[64].nic.phy  RadioState  ETV
vector 709  SASim.node[64].nic.phy  RadioChannel  ETV
vector 719  SASim.node[65].nic.phy  RadioState  ETV
vector 720  SASim.node[65].nic.phy  RadioChannel  ETV
vector 730  SASim.node[66].nic.phy  RadioState  ETV
vector 731  SASim.node[66].nic.phy  RadioChannel  ETV
vector 741  SASim.node[67].nic.phy  RadioState  ETV
vector 742  SASim.node[67].nic.phy  RadioChannel  ETV
vector 752  SASim.node[68].nic.phy  RadioState  ETV
vector 753  SASim.node[68].nic.phy  RadioChannel  ETV
vector 763  SASim.node[69].nic.phy  RadioState  ETV
vector 764  SASim.node[69].nic.phy  RadioChannel  ETV
vector 774  SASim.node[70].nic.phy  RadioState  ETV
vector 775  SASim.node[70].nic.phy  RadioChannel  ETV
vector 785  SASim.node[71].nic.phy  RadioState  ETV
vector 786  SASim.node[71].nic.phy  RadioChannel  ETV
vector 796  SASim.node[72].nic.phy  RadioState  ETV
vector 797  SASim.node[72].nic.phy  RadioChannel  ETV
vector 807  SASim.node[73].nic.phy  RadioState  ETV
vector 808  SASim.node[73].nic.phy  RadioChannel  ETV
vector 818  SASim.node[74].nic.phy  RadioState  ETV
vector 819  SASim.node[74].nic.phy  RadioChannel  ETV
vector 829  SASim.node[75].nic.phy  RadioState  ETV
vector 830  SASim.node[75].nic.phy  RadioChannel  ETV
vector 840  SASim.node[76].nic.phy  RadioState  ETV
vector 841  SASim.node[76].nic.phy  RadioChannel  ETV
vector 851  SASim.node[77].nic.phy  RadioState  ETV
vector 852  SASim.node[77].nic.phy  RadioChannel  ETV
vector 862  SASim.node[78].nic.phy  RadioState  ETV
vector 863  SASim.node[78].nic.phy  RadioChannel  ETV
vector 873  SASim.node[79].nic.phy  RadioState  ETV
vector 874  SASim.node[79].nic.phy  RadioChannel  ETV
vector 884  SASim.node[80].nic.phy  RadioState  ETV
vector 885  SASim.node[80].nic.phy  RadioChannel  ETV
vector 895  SASim.node[81].nic.phy  RadioState  ETV
vector 896  SASim.node[81].nic.phy  RadioChannel  ETV
vector 906  SASim.node[82].nic.phy  RadioState  ETV
vector 907  SASim.node[82].nic.phy  RadioChannel  ETV
vector 917  SASim.node[83].nic.phy  RadioState  ETV
vector 918  SASim.node[83].nic.phy  RadioChannel  ETV
vector 928  SASim.node[84].nic.phy  RadioState  ETV
vector 929  SASim.node[84].nic.phy  RadioChannel  ETV
vector 939  SASim.node[85].nic.phy  RadioState  ETV
vector 940  SASim.node[85].nic.phy  RadioChannel  ETV
vector 950  SASim.node[86].nic.phy  RadioState  ETV
vector 951  SASim.node[86].nic.phy  RadioChannel  ETV
vector 961  SASim.node[87].nic.phy  RadioState  ETV
vector 962  SASim.node[87].nic.phy  RadioChannel  ETV
vector 972  SASim.node[88].nic.phy  RadioState  ETV
vector 973  SASim.node[88].nic.phy  RadioChannel  ETV
vector 983  SASim.node[89].nic.phy  RadioState  ETV
vector 984  SASim.node[89].nic.phy  RadioChannel  ETV
vector 994  SASim.node[90].nic.phy  RadioState  ETV
vector 995  SASim.node[90].nic.phy  RadioChannel  ETV
vector 1005  SASim.node[91].nic.phy  RadioState  ETV
vector 1006  SASim.node[91].nic.phy  RadioChannel  ETV
vector 1016  SASim.node[92].nic.phy  RadioState  ETV
vector 1017  SASim.node[92].nic.phy  RadioChannel  ETV
vector 1027  SASim.node[93].nic.phy  RadioState  ETV
vector 1028  SASim.node[93].nic.phy  RadioChannel  ETV
vector 1038  SASim.node[94].nic.phy  RadioState  ETV
vector 1039  SASim.node[94].nic.phy  RadioChannel  ETV
vector 1049  SASim.node[95].nic.phy  RadioState  ETV
vector 1050  SASim.node[95].nic.phy  RadioChannel  ETV
vector 1060  SASim.node[96].nic.phy  RadioState  ETV
vector 1061  SASim.node[96].nic.phy  RadioChannel  ETV
vector 1071  SASim.node[97].nic.phy  RadioState  ETV
vector 1072  SASim.node[97].nic.phy  RadioChannel  ETV
vector 1082  SASim.node[98].nic.phy  RadioState  ETV
vector 1083  SASim.node[98].nic.phy  RadioChannel  ETV
vector 1093  SASim.node[99].nic.phy  RadioState  ETV
vector 1094  SASim.node[99].nic.phy  RadioChannel  ETV
vector 0  SASim.node[0].nic.mac  "Channel switching vector"  ETV
vector 6  SASim.node[0].batteryStats  capacity  ETV
attr unit  mW-s
vector 7  SASim.node[0].batteryStats  capacity(relative)  ETV
vector 8  SASim.node[0].batteryStats  estimate  ETV
attr unit  mW-s
vector 9  SASim.node[0].batteryStats  estimate(relative)  ETV
vector 11  SASim.node[1].nic.mac  "Channel switching vector"  ETV
vector 17  SASim.node[1].batteryStats  capacity  ETV
attr unit  mW-s
vector 18  SASim.node[1].batteryStats  capacity(relative)  ETV
vector 19  SASim.node[1].batteryStats  estimate  ETV
attr unit  mW-s
vector 20  SASim.node[1].batteryStats  estimate(relative)  ETV
vector 22  SASim.node[2].nic.mac  "Channel switching vector"  ETV
vector 28  SASim.node[2].batteryStats  capacity  ETV
attr unit  mW-s
vector 29  SASim.node[2].batteryStats  capacity(relative)  ETV
vector 30  SASim.node[2].batteryStats  estimate  ETV
attr unit  mW-s
vector 31  SASim.node[2].batteryStats  estimate(relative)  ETV
vector 33  SASim.node[3].nic.mac  "Channel switching vector"  ETV
vector 39  SASim.node[3].batteryStats  capacity  ETV
attr unit  mW-s
vector 40  SASim.node[3].batteryStats  capacity(relative)  ETV
vector 41  SASim.node[3].batteryStats  estimate  ETV
attr unit  mW-s
vector 42  SASim.node[3].batteryStats  estimate(relative)  ETV
vector 44  SASim.node[4].nic.mac  "Channel switching vector"  ETV
vector 50  SASim.node[4].batteryStats  capacity  ETV
attr unit  mW-s
vector 51  SASim.node[4].batteryStats  capacity(relative)  ETV
vector 52  SASim.node[4].batteryStats  estimate  ETV
attr unit  mW-s
vector 53  SASim.node[4].batteryStats  estimate(relative)  ETV
vector 55  SASim.node[5].nic.mac  "Channel switching vector"  ETV
vector 61  SASim.node[5].batteryStats  capacity  ETV
attr unit  mW-s
vector 62  SASim.node[5].batteryStats  capacity(relative)  ETV
vector 63  SASim.node[5].batteryStats  estimate  ETV
attr unit  mW-s
vector 64  SASim.node[5].batteryStats  estimate(relative)  ETV
vector 66  SASim.node[6].nic.mac  "Channel switching vector"  ETV
vector 72  SASim.node[6].batteryStats  capacity  ETV
attr unit  mW-s
vector 73  SASim.node[6].batteryStats  capacity(relative)  ETV
vector 74  SASim.node[6].batteryStats  estimate  ETV
attr unit  mW-s
vector 75  SASim.node[6].batteryStats  estimate(relative)  ETV
vector 77  SASim.node[7].nic.mac  "Channel switching vector"  ETV
vector 83  SASim.node[7].batteryStats  capacity  ETV
attr unit  mW-s
vector 84  SASim.node[7].batteryStats  capacity(relative)  ETV
vector 85  SASim.node[7].batteryStats  estimate  ETV
attr unit  mW-s
vector 86  SASim.node[7].batteryStats  estimate(relative)  ETV
vector 88  SASim.node[8].nic.mac  "Channel switching vector"  ETV
vector 94  SASim.node[8].batteryStats  capacity  ETV
attr unit  mW-s
vector 95  SASim.node[8].batteryStats  capacity(relative)  ETV
vector 96  SASim.node[8].batteryStats  estimate  ETV
attr unit  mW-s
vector 97  SASim.node[8].batteryStats  estimate(relative)  ETV
vector 99  SASim.node[9].nic.mac  "Channel switching vector"  ETV
vector 105  SASim.node[9].batteryStats  capacity  ETV
attr unit  mW-s
vector 106  SASim.node[9].batteryStats  capacity(relative)  ETV
vector 107  SASim.node[9].batteryStats  estimate  ETV
attr unit  mW-s
vector 108  SASim.node[9].batteryStats  estimate(relative)  ETV
vector 110  SASim.node[10].nic.mac  "Channel switching vector"  ETV
vector 116  SASim.node[10].batteryStats  capacity  ETV
attr unit  mW-s
vector 117  SASim.node[10].batteryStats  capacity(relative)  ETV
vector 118  SASim.node[10].batteryStats  estimate  ETV
attr unit  mW-s
vector 119  SASim.node[10].batteryStats  estimate(relative)  ETV
vector 121  SASim.node[11].nic.mac  "Channel switching vector"  ETV
vector 127  SASim.node[11].batteryStats  capacity  ETV
attr unit  mW-s
vector 128  SASim.node[11].batteryStats  capacity(relative)  ETV
vector 129  SASim.node[11].batteryStats  estimate  ETV
attr unit  mW-s
vector 130  SASim.node[11].batteryStats  estimate(relative)  ETV
vector 132  SASim.node[12].nic.mac  "Channel switching vector"  ETV
vector 138  SASim.node[12].batteryStats  capacity  ETV
attr unit  mW-s
vector 139  SASim.node[12].batteryStats  capacity(relative)  ETV
vector 140  SASim.node[12].batteryStats  estimate  ETV
attr unit  mW-s
vector 141  SASim.node[12].batteryStats  estimate(relative)  ETV
vector 143  SASim.node[13].nic.mac  "Channel switching vector"  ETV
vector 149  SASim.node[13].batteryStats  capacity  ETV
attr unit  mW-s
vector 150  SASim.node[13].batteryStats  capacity(relative)  ETV
vector 151  SASim.node[13].batteryStats  estimate  ETV
attr unit  mW-s
vector 152  SASim.node[13].batteryStats  estimate(relative)  ETV
vector 154  SASim.node[14].nic.mac  "Channel switching vector"  ETV
vector 160  SASim.node[14].batteryStats  capacity  ETV
attr unit  mW-s
vector 161  SASim.node[14].batteryStats  capacity(relative)  ETV
vector 162  SASim.node[14].batteryStats  estimate  ETV
attr unit  mW-s
vector 163  SASim.node[14].batteryStats  estimate(relative)  ETV
vector 165  SASim.node[15].nic.mac  "Channel switching vector"  ETV
vector 171  SASim.node[15].batteryStats  capacity  ETV
attr unit  mW-s
vector 172  SASim.node[15].batteryStats  capacity(relative)  ETV
vector 173  SASim.node[15].batteryStats  estimate  ETV
attr unit  mW-s
vector 174  SASim.node[15].batteryStats  estimate(relative)  ETV
vector 176  SASim.node[16].nic.mac  "Channel switching vector"  ETV
vector 182  SASim.node[16].batteryStats  capacity  ETV
attr unit  mW-s
vector 183  SASim.node[16].batteryStats  capacity(relative)  ETV
vector 184  SASim.node[16].batteryStats  estimate  ETV
attr unit  mW-s
vector 185  SASim.node[16].batteryStats  estimate(relative)  ETV
vector 187  SASim.node[17].nic.mac  "Channel switching vector"  ETV
vector 193  SASim.node[17].batteryStats  capacity  ETV
attr unit  mW-s
vector 194  SASim.node[17].batteryStats  capacity(relative)  ETV
vector 195  SASim.node[17].batteryStats  estimate  ETV
attr unit  mW-s
vector 196  SASim.node[17].batteryStats  estimate(relative)  ETV
vector 198  SASim.node[18].nic.mac  "Channel switching vector"  ETV
vector 204  SASim.node[18].batteryStats  capacity  ETV
attr unit  mW-s
vector 205  SASim.node[18].batteryStats  capacity(relative)  ETV
vector 206  SASim.node[18].batteryStats  estimate  ETV
attr unit  mW-s
vector 207  SASim.node[18].batteryStats  estimate(relative)  ETV
vector 209  SASim.node[19].nic.mac  "Channel switching vector"  ETV
vector 215  SASim.node[19].batteryStats  capacity  ETV
attr unit  mW-s
vector 216  SASim.node[19].batteryStats  capacity(relative)  ETV
vector 217  SASim.node[19].batteryStats  estimate  ETV
attr unit  mW-s
vector 218  SASim.node[19].batteryStats  estimate(relative)  ETV
vector 220  SASim.node[20].nic.mac  "Channel switching vector"  ETV
vector 226  SASim.node[20].batteryStats  capacity  ETV
attr unit  mW-s
vector 227  SASim.node[20].batteryStats  capacity(relative)  ETV
vector 228  SASim.node[20].batteryStats  estimate  ETV
attr unit  mW-s
vector 229  SASim.node[20].batteryStats  estimate(relative)  ETV
vector 231  SASim.node[21].nic.mac  "Channel switching vector"  ETV
vector 237  SASim.node[21].batteryStats  capacity  ETV
attr unit  mW-s
vector 238  SASim.node[21].batteryStats  capacity(relative)  ETV
vector 239  SASim.node[21].batteryStats  estimate  ETV
attr unit  mW-s
vector 240  SASim.node[21].batteryStats  estimate(relative)  ETV
vector 242  SASim.node[22].nic.mac  "Channel switching vector"  ETV
vector 248  SASim.node[22].batteryStats  capacity  ETV
attr unit  mW-s
vector 249  SASim.node[22].batteryStats  capacity(relative)  ETV
vector 250  SASim.node[22].batteryStats  estimate  ETV
attr unit  mW-s
vector 251  SASim.node[22].batteryStats  estimate(relative)  ETV
vector 253  SASim.node[23].nic.mac  "Channel switching vector"  ETV
vector 259  SASim.node[23].batteryStats  capacity  ETV
attr unit  mW-s
vector 260  SASim.node[23].batteryStats  capacity(relative)  ETV
vector 261  SASim.node[23].batteryStats  estimate  ETV
attr unit  mW-s
vector 262  SASim.node[23].batteryStats  estimate(relative)  ETV
vector 264  SASim.node[24].nic.mac  "Channel switching vector"  ETV
vector 270  SASim.node[24].batteryStats  capacity  ETV
attr unit  mW-s
vector 271  SASim.node[24].batteryStats  capacity(relative)  ETV
vector 272  SASim.node[24].batteryStats  estimate  ETV
attr unit  mW-s
vector 273  SASim.node[24].batteryStats  estimate(relative)  ETV
vector 275  SASim.node[25].nic.mac  "Channel switching vector"  ETV
vector 281  SASim.node[25].batteryStats  capacity  ETV
attr unit  mW-s
vector 282  SASim.node[25].batteryStats  capacity(relative)  ETV
vector 283  SASim.node[25].batteryStats  estimate  ETV
attr unit  mW-s
vector 284  SASim.node[25].batteryStats  estimate(relative)  ETV
vector 286  SASim.node[26].nic.mac  "Channel switching vector"  ETV
vector 292  SASim.node[26].batteryStats  capacity  ETV
attr unit  mW-s
vector 293  SASim.node[26].batteryStats  capacity(relative)  ETV
vector 294  SASim.node[26].batteryStats  estimate  ETV
attr unit  mW-s
vector 295  SASim.node[26].batteryStats  estimate(relative)  ETV
vector 297  SASim.node[27].nic.mac  "Channel switching vector"  ETV
vector 303  SASim.node[27].batteryStats  capacity  ETV
attr unit  mW-s
vector 304  SASim.node[27].batteryStats  capacity(relative)  ETV
vector 305  SASim.node[27].batteryStats  estimate  ETV
attr unit  mW-s
vector 306  SASim.node[27].batteryStats  estimate(relative)  ETV
vector 308  SASim.node[28].nic.mac  "Channel switching vector"  ETV
vector 314  SASim.node[28].batteryStats  capacity  ETV
attr unit  mW-s
vector 315  SASim.node[28].batteryStats  capacity(relative)  ETV
vector 316  SASim.node[28].batteryStats  estimate  ETV
attr unit  mW-s
vector 317  SASim.node[28].batteryStats  estimate(relative)  ETV
vector 319  SASim.node[29].nic.mac  "Channel switching vector"  ETV
vector 325  SASim.node[29].batteryStats  capacity  ETV
attr unit  mW-s
vector 326  SASim.node[29].batteryStats  capacity(relative)  ETV
vector 327  SASim.node[29].batteryStats  estimate  ETV
attr unit  mW-s
vector 328  SASim.node[29].batteryStats  estimate(relative)  ETV
vector 330  SASim.node[30].nic.mac  "Channel switching vector"  ETV
vector 336  SASim.node[30].batteryStats  capacity  ETV
attr unit  mW-s
vector 337  SASim.node[30].batteryStats  capacity(relative)  ETV
vector 338  SASim.node[30].batteryStats  estimate  ETV
attr unit  mW-s
vector 339  SASim.node[30].batteryStats  estimate(relative)  ETV
vector 341  SASim.node[31].nic.mac  "Channel switching vector"  ETV
vector 347  SASim.node[31].batteryStats  capacity  ETV
attr unit  mW-s
vector 348  SASim.node[31].batteryStats  capacity(relative)  ETV
vector 349  SASim.node[31].batteryStats  estimate  ETV
attr unit  mW-s
vector 350  SASim.node[31].batteryStats  estimate(relative)  ETV
vector 352  SASim.node[32].nic.mac  "Channel switching vector"  ETV
vector 358  SASim.node[32].batteryStats  capacity  ETV
attr unit  mW-s
vector 359  SASim.node[32].batteryStats  capacity(relative)  ETV
vector 360  SASim.node[32].batteryStats  estimate  ETV
attr unit  mW-s
vector 361  SASim.node[32].batteryStats  estimate(relative)  ETV
vector 363  SASim.node[33].nic.mac  "Channel switching vector"  ETV
vector 369  SASim.node[33].batteryStats  capacity  ETV
attr unit  mW-s
vector 370  SASim.node[33].batteryStats  capacity(relative)  ETV
vector 371  SASim.node[33].batteryStats  estimate  ETV
attr unit  mW-s
vector 372  SASim.node[33].batteryStats  estimate(relative)  ETV
vector 374  SASim.node[34].nic.mac  "Channel switching vector"  ETV
vector 380  SASim.node[34].batteryStats  capacity  ETV
attr unit  mW-s
vector 381  SASim.node[34].batteryStats  capacity(relative)  ETV
vector 382  SASim.node[34].batteryStats  estimate  ETV
attr unit  mW-s
vector 383  SASim.node[34].batteryStats  estimate(relative)  ETV
vector 385  SASim.node[35].nic.mac  "Channel switching vector"  ETV
vector 391  SASim.node[35].batteryStats  capacity  ETV
attr unit  mW-s
vector 392  SASim.node[35].batteryStats  capacity(relative)  ETV
vector 393  SASim.node[35].batteryStats  estimate  ETV
attr unit  mW-s
vector 394  SASim.node[35].batteryStats  estimate(relative)  ETV
vector 396  SASim.node[36].nic.mac  "Channel switching vector"  ETV
vector 402  SASim.node[36].batteryStats  capacity  ETV
attr unit  mW-s
vector 403  SASim.node[36].batteryStats  capacity(relative)  ETV
vector 404  SASim.node[36].batteryStats  estimate  ETV
attr unit  mW-s
vector 405  SASim.node[36].batteryStats  estimate(relative)  ETV
vector 407  SASim.node[37].nic.mac  "Channel switching vector"  ETV
vector 413  SASim.node[37].batteryStats  capacity  ETV
attr unit  mW-s
vector 414  SASim.node[37].batteryStats  capacity(relative)  ETV
vector 415  SASim.node[37].batteryStats  estimate  ETV
attr unit  mW-s
vector 416  SASim.node[37].batteryStats  estimate(relative)  ETV
vector 418  SASim.node[38].nic.mac  "Channel switching vector"  ETV
vector 424  SASim.node[38].batteryStats  capacity  ETV
attr unit  mW-s
vector 425  SASim.node[38].batteryStats  capacity(relative)  ETV
vector 426  SASim.node[38].batteryStats  estimate  ETV
attr unit  mW-s
vector 427  SASim.node[38].batteryStats  estimate(relative)  ETV
vector 429  SASim.node[39].nic.mac  "Channel switching vector"  ETV
vector 435  SASim.node[39].batteryStats  capacity  ETV
attr unit  mW-s
vector 436  SASim.node[39].batteryStats  capacity(relative)  ETV
vector 437  SASim.node[39].batteryStats  estimate  ETV
attr unit  mW-s
vector 438  SASim.node[39].batteryStats  estimate(relative)  ETV
vector 440  SASim.node[40].nic.mac  "Channel switching vector"  ETV
vector 446  SASim.node[40].batteryStats  capacity  ETV
attr unit  mW-s
vector 447  SASim.node[40].batteryStats  capacity(relative)  ETV
vector 448  SASim.node[40].batteryStats  estimate  ETV
attr unit  mW-s
vector 449  SASim.node[40].batteryStats  estimate(relative)  ETV
vector 451  SASim.node[41].nic.mac  "Channel switching vector"  ETV
vector 457  SASim.node[41].batteryStats  capacity  ETV
attr unit  mW-s
vector 458  SASim.node[41].batteryStats  capacity(relative)  ETV
vector 459  SASim.node[41].batteryStats  estimate  ETV
attr unit  mW-s
vector 460  SASim.node[41].batteryStats  estimate(relative)  ETV
vector 462  SASim.node[42].nic.mac  "Channel switching vector"  ETV
vector 468  SASim.node[42].batteryStats  capacity  ETV
attr unit  mW-s
vector 469  SASim.node[42].batteryStats  capacity(relative)  ETV
vector 470  SASim.node[42].batteryStats  estimate  ETV
attr unit  mW-s
vector 471  SASim.node[42].batteryStats  estimate(relative)  ETV
vector 473  SASim.node[43].nic.mac  "Channel switching vector"  ETV
vector 479  SASim.node[43].batteryStats  capacity  ETV
attr unit  mW-s
vector 480  SASim.node[43].batteryStats  capacity(relative)  ETV
vector 481  SASim.node[43].batteryStats  estimate  ETV
attr unit  mW-s
vector 482  SASim.node[43].batteryStats  estimate(relative)  ETV
vector 484  SASim.node[44].nic.mac  "Channel switching vector"  ETV
vector 490  SASim.node[44].batteryStats  capacity  ETV
attr unit  mW-s
vector 491  SASim.node[44].batteryStats  capacity(relative)  ETV
vector 492  SASim.node[44].batteryStats  estimate  ETV
attr unit  mW-s
vector 493  SASim.node[44].batteryStats  estimate(relative)  ETV
vector 495  SASim.node[45].nic.mac  "Channel switching vector"  ETV
vector 501  SASim.node[45].batteryStats  capacity  ETV
attr unit  mW-s
vector 502  SASim.node[45].batteryStats  capacity(relative)  ETV
vector 503  SASim.node[45].batteryStats  estimate  ETV
attr unit  mW-s
vector 504  SASim.node[45].batteryStats  estimate(relative)  ETV
vector 506  SASim.node[46].nic.mac  "Channel switching vector"  ETV
vector 512  SASim.node[46].batteryStats  capacity  ETV
attr unit  mW-s
vector 513  SASim.node[46].batteryStats  capacity(relative)  ETV
vector 514  SASim.node[46].batteryStats  estimate  ETV
attr unit  mW-s
vector 515  SASim.node[46].batteryStats  estimate(relative)  ETV
vector 517  SASim.node[47].nic.mac  "Channel switching vector"  ETV
vector 523  SASim.node[47].batteryStats  capacity  ETV
attr unit  mW-s
vector 524  SASim.node[47].batteryStats  capacity(relative)  ETV
vector 525  SASim.node[47].batteryStats  estimate  ETV
attr unit  mW-s
vector 526  SASim.node[47].batteryStats  estimate(relative)  ETV
vector 528  SASim.node[48].nic.mac  "Channel switching vector"  ETV
vector 534  SASim.node[48].batteryStats  capacity  ETV
attr unit  mW-s
vector 535  SASim.node[48].batteryStats  capacity(relative)  ETV
vector 536  SASim.node[48].batteryStats  estimate  ETV
attr unit  mW-s
vector 537  SASim.node[48].batteryStats  estimate(relative)  ETV
vector 539  SASim.node[49].nic.mac  "Channel switching vector"  ETV
vector 545  SASim.node[49].batteryStats  capacity  ETV
attr unit  mW-s
vector 546  SASim.node[49].batteryStats  capacity(relative)  ETV
vector 547  SASim.node[49].batteryStats  estimate  ETV
attr unit  mW-s
vector 548  SASim.node[49].batteryStats  estimate(relative)  ETV
vector 550  SASim.node[50].nic.mac  "Channel switching vector"  ETV
vector 556  SASim.node[50].batteryStats  capacity  ETV
attr unit  mW-s
vector 557  SASim.node[50].batteryStats  capacity(relative)  ETV
vector 558  SASim.node[50].batteryStats  estimate  ETV
attr unit  mW-s
vector 559  SASim.node[50].batteryStats  estimate(relative)  ETV
vector 561  SASim.node[51].nic.mac  "Channel switching vector"  ETV
vector 567  SASim.node[51].batteryStats  capacity  ETV
attr unit  mW-s
vector 568  SASim.node[51].batteryStats  capacity(relative)  ETV
vector 569  SASim.node[51].batteryStats  estimate  ETV
attr unit  mW-s
vector 570  SASim.node[51].batteryStats  estimate(relative)  ETV
vector 572  SASim.node[52].nic.mac  "Channel switching vector"  ETV
vector 578  SASim.node[52].batteryStats  capacity  ETV
attr unit  mW-s
vector 579  SASim.node[52].batteryStats  capacity(relative)  ETV
vector 580  SASim.node[52].batteryStats  estimate  ETV
attr unit  mW-s
vector 581  SASim.node[52].batteryStats  estimate(relative)  ETV
vector 583  SASim.node[53].nic.mac  "Channel switching vector"  ETV
vector 589  SASim.node[53].batteryStats  capacity  ETV
attr unit  mW-s
vector 590  SASim.node[53].batteryStats  capacity(relative)  ETV
vector 591  SASim.node[53].batteryStats  estimate  ETV
attr unit  mW-s
vector 592  SASim.node[53].batteryStats  estimate(relative)  ETV
vector 594  SASim.node[54].nic.mac  "Channel switching vector"  ETV
vector 600  SASim.node[54].batteryStats  capacity  ETV